<?xml version="1.0" encoding="UTF-8"?>

<!-- generated on 2021-05-14 16:29:40 by Eclipse SUMO GUI Version 1.9.1
<configuration xmlns:xsi="http://www.w3.org/2001/XMLSchema-instance" xsi:noNamespaceSchemaLocation="http://sumo.dlr.de/xsd/sumoConfiguration.xsd">

    <input>
        <net-file value="C:/Users/Dylan/Documents/Spring%202021/EEC%20289A/Project%20Resources/Sumo%20files/w_8th_oak.net.xml"/>
        <route-files value="C:/Users/Dylan/Documents/Spring%202021/EEC%20289A/Project%20Resources/Sumo%20files/w_8th_oak.rou.xml"/>
    </input>

    <output>
        <tripinfo-output value="C:/Users/Dylan/Documents/Spring%202021/EEC%20289A/Project%20Resources/Sumo%20files/tripinfo.xml"/>
    </output>

    <time>
        <begin value="0"/>
        <end value="1000"/>
    </time>

    <traci_server>
        <remote-port value="61062"/>
    </traci_server>

</configuration>
-->

<tripinfos xmlns:xsi="http://www.w3.org/2001/XMLSchema-instance" xsi:noNamespaceSchemaLocation="http://sumo.dlr.de/xsd/tripinfo_file.xsd">
</tripinfos>
